% Model:              TestCase5.mph
% Version:            COMSOL 5.5.0.359
% Date:               Jun 30 2020, 10:07
% Dimension:          2
% Nodes:              41
% Expressions:        3
% Description:        Magnitude value, Real value, Imaginary value
% Length unit:        m
% R                       Z                        abs(mf.Br) (T) @ freq=100 real(mf.Br) (T) @ freq=100 imag(mf.Br) (T) @ freq=100
0                         0                        3.147098078800295E-7     -1.8957556660319455E-7   -2.512038369988859E-7
0.002410950346966827      0                        2.1409281613026691E-10   -5.882523199579905E-11   -2.0585268033044577E-10
0.004819768193270842      0                        2.725509098708997E-7     -2.725469868021471E-7    1.4623462399702683E-9
0.0048211533902923496     0                        2.72417082268128E-7      -2.7240724475392015E-7   2.315106273557531E-9
0.004822539454378404      0                        2.724391398554939E-7     -2.7241981262836716E-7   3.245090557548315E-9
0.007230035031055175      0                        4.624537499741565E-10    -3.7068733870518335E-10  -2.765038296096969E-10
0.009631188275431586      0                        3.53368015687401E-7      -2.569401360380449E-7    -2.425916754622925E-7
0.009637252556645257      0                        3.5173569433747476E-7    -2.593294060196397E-7    -2.3762629872252422E-7
0.0096433193588753        0                        3.51481404596446E-7      -2.6335811812238403E-7   -2.327695843449633E-7
0.012042607291707863      0                        1.3148979519269944E-9    -1.2286995809616292E-9   -4.682456232860283E-10
0.014439907947882042      0                        5.265153581492287E-7     -1.250590335270265E-7    -5.114476126645784E-7
0.01444786072795788       0                        5.302694483311652E-7     -1.362796900668535E-7    -5.124583240700853E-7
0.014455321520367907      0                        5.275624958144056E-7     -1.4981850406707683E-7   -5.058424683921152E-7
0.016825380106896718      0                        5.2511714357551674E-8    -1.135586619197099E-8    -5.1269137381071164E-8
0.018825589532800325      0                        5.24629106617846E-7      -5.142287925447954E-7    1.0394444876260081E-7
0.01916105301348546       0                        6.377615535768827E-7     -2.540474409492724E-7    5.84978373077095E-7
0.019604378137703028      0                        1.9477845481843496E-6    1.9422377910399725E-6    1.4689114745919545E-7
0.021480980659369153      0                        3.4783594038089527E-7    2.2119623932869117E-7    -2.6844378392413206E-7
0.022858269650040914      0                        2.426813660021453E-6     -2.2006885659464575E-6   -1.02293419933994E-6
0.02379699955734269       0                        7.16339740046725E-7      -5.972925833250473E-7    3.9545441339691845E-7
0.02508077257826487       0                        4.631943941933844E-6     4.079132186315715E-6     2.1944441865266966E-6
0.026118633237962124      0                        1.1159224315957866E-6    1.0522601380303478E-6    -3.715258742685445E-7
0.026888423850967336      0                        4.0304354531964135E-6    -2.0465810513380568E-6   -3.4721630063530415E-6
0.028443832649448636      0                        5.286938190811298E-7     -5.285754049563623E-7    -1.1189084404368598E-8
0.03049084728510942       0                        4.956555836342909E-6     3.7627608837506104E-6    3.226310011530398E-6
0.030781285825565503      0                        2.717255902324821E-6     2.6768157944051535E-6    4.670512193990977E-7
0.03101376108962263       0                        3.101426026085006E-6     1.8065043505194289E-6    -2.5209889779274738E-6
0.03313684326665          0                        3.5234073938975255E-7    3.481472669784078E-7     -5.419849748085988E-8
0.03552082575205475       0                        5.5332280013430814E-6    3.6008815219514068E-6    4.201221772260549E-6
0.035542139995326565      0                        5.2368145181146086E-6    3.6610660941349756E-6    3.7444387231614856E-6
0.0355633085715199        0                        5.0402207640305855E-6    3.826224187844549E-6     3.280828220818392E-6
0.03794795040545876       0                        1.2350752474873217E-7    1.1536114482698645E-7    4.4112525814849345E-8
0.0403522943833984        0                        9.414302416501031E-6     1.597253099606066E-6     9.277816150643209E-6
0.04035646582344064       0                        9.32937449968088E-6      1.69723002235356E-6      9.173692757364267E-6
0.04036062825567054       0                        9.223262227593934E-6     1.8265890558636011E-6    9.040582865056896E-6
0.042766505435431326      0                        3.666391691246728E-8     2.5684363063218777E-8    2.6164026781079915E-8
0.04517705707178628       0                        1.6357838970895248E-5    -6.435741213812998E-6    1.503862130737283E-5
0.04517740452280843       0                        1.6346286359197787E-5    -6.4161837714454955E-6   1.5034415969632314E-5
0.04517775184120115       0                        1.632976856383594E-5     -6.39001106843718E-6     1.5027611250418174E-5
0.047588681606794886      0                        1.1475720762992442E-8    -7.603688781516879E-9    8.595119774849574E-9
0.05                      0                        6.551580847796597E-5     6.358495394701389E-6     -6.520652342240828E-5
