% Model:              TestCase6_transient.mph
% Version:            COMSOL 5.5.0.359
% Date:               Jun 29 2020, 11:59
% Dimension:          1
% Nodes:              32410
% Expressions:        1
% Description:        Line graph
% cln1x                   Height
0                         303.16679993461224
50                        323.5728026777452
50                        323.57278993960256
50                        323.5727682177131
50                        323.57272460991965
50                        323.5726709863968
50                        323.57259529801246
50                        323.5725095211318
50                        323.57240163644144
50                        323.57228363076405
50                        323.57214348875186
50                        323.57199319801384
50                        323.57182074289926
50                        323.57163810961595
50                        323.5714332810742
50                        323.57121824136834
50                        323.5709809716092
50                        323.570733453501
50                        323.57046366625224
50                        323.57018358905697
50                        323.5698811992167
50                        323.5695684733754
50                        323.5692333869785
50                        323.5688879150457
50                        323.5685200319127
50                        323.56814210502006
50                        323.5681419091085
50                        323.5681417077774
50                        323.56774181923004
50                        323.56733339595405
50                        323.5673320690894
50                        323.567330708401
50                        323.5669014086805
50                        323.5664656081946
50                        323.5664628201099
50                        323.56645998611697
50                        323.5660056608003
50                        323.56554452773344
50                        323.565542082282
50                        323.56553960524985
50                        323.565059180103
50                        323.56456824052157
50                        323.5645661142311
50                        323.5645671847528
50                        323.5640547031819
50                        323.563531141654
50                        323.5629814531671
50                        323.5624156891382
50                        323.561822135548
50                        323.5612150415269
50                        323.5605843679007
50                        323.5599426874193
50                        323.55927796320884
50                        323.55860214579934
50                        323.5579031977292
50                        323.55719306730873
50                        323.5564597165065
50                        323.5557150912845
50                        323.55494715288245
50                        323.5541678444887
50                        323.5533651259798
50                        323.5525509366036
50                        323.55171323306206
50                        323.55086394763373
50                        323.54999102914775
50                        323.549106395485
50                        323.5481979762899
50                        323.5472776579237
50                        323.546333325877
50                        323.54537679971185
50                        323.5443958739952
50                        323.5434022454499
50                        323.5423835649372
50                        323.5413513926463
100                       343.6131884076352
100                       343.61316260292534
100                       343.61311882829904
100                       343.6130306299318
100                       343.61292240403657
100                       343.6127694063662
100                       343.6125962488507
100                       343.6123782501072
100                       343.6121400462131
100                       343.6118569668821
100                       343.61155365290483
100                       343.61120543647087
100                       343.6108369585951
100                       343.6104235515558
100                       343.60998985503215
100                       343.60951120053113
100                       343.60901222567895
100                       343.6084682608414
100                       343.607903941163
100                       343.60729459566426
100                       343.6066648567156
100                       343.60599005187277
100                       343.60529481235386
100                       343.6045544654961
100                       343.603794433547
100                       343.60379403942557
100                       343.6037936346835
100                       343.6029894627481
100                       343.60216870170115
100                       343.60216603439864
100                       343.6021633010219
100                       343.60130064373067
100                       343.60042554056923
100                       343.6004199402549
100                       343.60041425175086
100                       343.5995020314954
100                       343.5985767989863
100                       343.5985718908583
100                       343.59856692288184
100                       343.5976030840047
100                       343.596618853612
100                       343.59661459111584
100                       343.5966167363887
100                       343.5955894472335
100                       343.59454070010827
100                       343.59454052278784
100                       343.5934397795322
100                       343.59230748114663
100                       343.5911197742153
100                       343.5899058547879
100                       343.58864503105275
100                       343.587363133327
100                       343.5860354688487
100                       343.5846866214858
100                       343.58329189528075
100                       343.5818758672554
100                       343.58041383770114
100                       343.578930375914
100                       343.57740077745564
100                       343.57584960233294
100                       343.57425213932953
100                       343.5726329359385
100                       343.5709672695003
100                       343.5692796676625
100                       343.5675453853171
100                       343.5657889133102
100                       343.5639854586857
100                       343.5621594375699
100                       343.5602859544873
100                       343.5583892745552
100                       343.5564443002873
100                       343.5544750299882
100                       343.5524560633501
100                       343.55041113203174
150                       363.2878531161657
150                       363.2878145726293
150                       363.2877492098827
150                       363.2876174839978
150                       363.28745586743787
150                       363.28722736743566
150                       363.2869687781165
150                       363.28664320024797
150                       363.2862874637006
150                       363.2858646855136
150                       363.28541170230193
150                       363.2848916345183
150                       363.2843413188173
150                       363.2837238755068
150                       363.2830761389666
150                       363.2823612280728
150                       363.2816159738678
150                       363.2808034932432
150                       363.27996061328355
150                       363.27905044862
150                       363.2781098219394
150                       363.27710184545424
150                       363.27606333990786
150                       363.2749574169855
150                       363.273822078886
150                       363.27382149013863
150                       363.27382088551974
150                       363.2726195691552
150                       363.27139345663716
150                       363.2713894719827
150                       363.271385388567
150                       363.2700966438862
150                       363.26878928724665
150                       363.2687809205999
150                       363.2687724220705
150                       363.2674095679787
150                       363.26602725109325
150                       363.2660199181841
150                       363.2660124957322
150                       363.26457245174953
150                       363.2631019149421
150                       363.2630955462474
150                       363.2630987515794
150                       363.2615638300875
150                       363.2599968166351
150                       363.2599965516827
150                       363.258351793455
150                       363.25665984911404
150                       363.2548850536335
150                       363.25307104857774
150                       363.2511868949015
150                       363.24927120635215
150                       363.2472870662936
150                       363.2452712268564
150                       363.24318676779836
150                       363.24107043245414
150                       363.2388852967711
150                       363.23666809481904
150                       363.2343818984843
150                       363.2320634320405
150                       363.2296757629722
150                       363.2272556050918
150                       363.2247660209385
150                       363.22224371289343
150                       363.21965173754313
150                       363.21702678418893
150                       363.21433190147144
150                       363.2116037625839
150                       363.20880540441885
150                       363.2059734789063
150                       363.2030710054716
150                       363.2001346094167
150                       363.1971272920817
150                       363.1940856652402
200                       382.6117593385604
200                       382.6117081228725
200                       382.61162129465595
200                       382.6114462759328
200                       382.611231567568
200                       382.61092797991165
200                       382.6105844416701
200                       382.61015188810387
200                       382.6096792961048
200                       382.60911762326424
200                       382.60851585616444
200                       382.6078249576738
200                       382.6070939151818
200                       382.6062736921332
200                       382.60541327367747
200                       382.6044636221551
200                       382.6034737190966
200                       382.60239452503527
200                       382.6012750170975
200                       382.60006615368786
200                       382.59881690698177
200                       382.5974782330926
200                       382.5960991025549
200                       382.5946304717538
200                       382.5931228810383
200                       382.59312209923587
200                       382.59312129641387
200                       382.5915261348495
200                       382.58989816545176
200                       382.58989287471394
200                       382.5898874532467
200                       382.58817637536424
200                       382.5864407192782
200                       382.5864296114104
200                       382.58641832933984
200                       382.58460905623235
200                       382.58277409383214
200                       382.58276435951075
200                       382.58275450714416
200                       382.58084298728073
200                       382.57889115871865
200                       382.57888270579787
200                       382.57888695992347
200                       382.5768497610198
200                       382.57477015824367
200                       382.5747698066307
200                       382.5725871330113
200                       382.570342060731
200                       382.5679871824872
200                       382.56558053227417
200                       382.5630809714488
200                       382.5605398611304
200                       382.5579081323377
200                       382.55523467812975
200                       382.5524704267316
200                       382.5496642616114
200                       382.54676710815653
200                       382.5438278398945
200                       382.54079737939156
200                       382.5377245899961
200                       382.53456039165087
200                       382.5313536375771
200                       382.52805524575643
200                       382.5247140600811
200                       382.52128099839234
200                       382.5178048978401
200                       382.5142366806553
200                       382.51062518384214
200                       382.5069213442862
200                       382.5031740132466
200                       382.49933416230635
200                       382.49545068172483
200                       382.49147460412473
200                       382.4874548739562
250                       401.5815997374084
250                       401.58153598210333
250                       401.58142790428275
250                       401.5812100406791
250                       401.5809427819282
250                       401.5805648826303
250                       401.58013726674284
250                       401.5795988451659
250                       401.57901060268387
250                       401.5783114788564
250                       401.57756247141475
250                       401.5767025273871
250                       401.5757926464336
250                       401.57477177724604
250                       401.5737009176681
250                       401.5725190160157
250                       401.57128706665674
250                       401.56994401671915
250                       401.56855085618434
250                       401.5670465306626
250                       401.56549202514395
250                       401.563826283601
250                       401.5621102902358
250                       401.5602829906614
250                       401.55840732349253
250                       401.5584063508019
250                       401.55840535201895
250                       401.55642080231337
250                       401.5543955626281
250                       401.5543889807163
250                       401.5543822366107
250                       401.55225369051686
250                       401.55009471615296
250                       401.55008089894125
250                       401.5500668660263
250                       401.5478164164575
250                       401.54553418054974
250                       401.5455220733056
250                       401.5455098201715
250                       401.5431324770674
250                       401.54070519400705
250                       401.54069468227715
250                       401.5406999723298
250                       401.538166653457
250                       401.535580824821
250                       401.53558038762964
250                       401.532866553234
250                       401.5300753954029
250                       401.5271479118473
250                       401.5241563723218
250                       401.5210495651921
250                       401.5178914627363
250                       401.5146209961116
250                       401.51129907218143
250                       401.50786462135693
250                       401.50437854138954
250                       401.5007797620867
250                       401.49712917185275
250                       401.493365700117
250                       401.48955022584636
250                       401.4856216785446
250                       401.4816409280117
250                       401.4775469048478
250                       401.4734004708628
250                       401.46914056017556
250                       401.4648280299293
250                       401.4604018234154
250                       401.4559228011788
250                       401.45132992804776
250                       401.4466840850172
250                       401.44192428172266
250                       401.43711144736454
250                       401.43218466378437
250                       401.42720491789186
300                       420.20803992587906
300                       420.2079638038936
300                       420.207834766433
300                       420.2075746471948
300                       420.2072555580766
300                       420.2068043692282
300                       420.2062938301198
300                       420.2056509983588
300                       420.2049486969102
300                       420.20411401848264
300                       420.2032198024039
300                       420.2021931512211
300                       420.2011069075132
300                       420.1998881767835
300                       420.19860980044047
300                       420.19719888456655
300                       420.19572826748026
300                       420.19412505494046
300                       420.1924620811592
300                       420.1906664512534
300                       420.1888109946885
300                       420.18682281588354
300                       420.18477474466334
300                       420.1825938887558
300                       420.1803554118218
300                       420.18035425097395
300                       420.1803530590453
300                       420.17798471377046
300                       420.17556793437416
300                       420.17556007990885
300                       420.1755520323266
300                       420.17301206431114
300                       420.17043593235314
300                       420.1704194452135
300                       420.17040270167695
300                       420.1677175239147
300                       420.1649945865406
300                       420.16498014122465
300                       420.16496552277795
300                       420.16212923230086
300                       420.15923355337634
300                       420.15922101347843
300                       420.1592273239944
300                       420.1562052865324
300                       420.15312083184403
300                       420.15312031036257
300                       420.1498833313615
300                       420.14655438659054
300                       420.1430630496761
300                       420.13949562860114
300                       420.13579098584387
300                       420.13202553163995
300                       420.128126374165
300                       420.12416627065437
300                       420.12007233117134
300                       420.11591730493035
300                       420.11162830420903
300                       420.10727807006145
300                       420.10279371736107
300                       420.0982479789533
300                       420.093567972824
300                       420.08882642377756
300                       420.0839504537613
300                       420.07901278023195
300                       420.07394053075234
300                       420.06880641735216
300                       420.06353757669586
300                       420.0582067199735
300                       420.05274100016027
300                       420.04721313707853
300                       420.0415503129312
300                       420.0358252706925
300                       420.0299652349304
300                       420.02404297165475
350                       438.5224765131773
350                       438.52238831638374
350                       438.5222388273702
350                       438.5219374576566
350                       438.52156778393976
350                       438.5210450520169
350                       438.52045357762336
350                       438.5197088242199
350                       438.5188951932101
350                       438.5179281892508
350                       438.5168922332437
350                       438.51570284179
350                       438.5144444401112
350                       438.5130325487927
350                       438.51155159226556
350                       438.5099170923591
350                       438.5082134705053
350                       438.5063562487476
350                       438.504429844357
350                       438.50234977924106
350                       438.5002004657872
350                       438.4978974257221
350                       438.49552507248546
350                       438.49299893228624
350                       438.49040612247967
350                       438.49040477786633
350                       438.4904033972927
350                       438.4876601916584
350                       438.4848609707003
350                       438.4848518732262
350                       438.4848425523644
350                       438.48190068613434
350                       438.4789170294311
350                       438.4788979339723
350                       438.4788785421918
350                       438.4757686337893
350                       438.4726150995589
350                       438.4725983697477
350                       438.47258144001154
350                       438.4692966788722
350                       438.46594325811515
350                       438.46592873606915
350                       438.4659360439388
350                       438.4624363510743
350                       438.4588645095937
350                       438.4588639057169
350                       438.45511551195136
350                       438.45126077682147
350                       438.44721809028
350                       438.4430874807192
350                       438.43879809217054
350                       438.4344384907425
350                       438.42992421032613
350                       438.4253395882142
350                       438.4206001614925
350                       438.4157902591894
350                       438.4108254220159
350                       438.40578997062676
350                       438.400599449855
350                       438.3953381719862
350                       438.389921686638
350                       438.3844342979917
350                       438.3787915615154
350                       438.37307777418755
350                       438.36720849936347
350                       438.3612680291961
350                       438.3551719391647
350                       438.3490045221671
350                       438.34268137448055
350                       438.3362868010994
350                       438.32973643443233
350                       438.3231146085609
350                       438.3163370067485
350                       438.3094879898057
400                       456.5066656979019
400                       456.5065656490618
400                       456.5063960898363
400                       456.50605423312965
400                       456.50563491508257
400                       456.50504196563867
400                       456.50437105956297
400                       456.50352627413577
400                       456.5026033817704
400                       456.50150650695923
400                       456.50033144472457
400                       456.4989823336014
400                       456.49755497401134
400                       456.4959535095093
400                       456.49427374012504
400                       456.49241981133235
400                       456.49048752026954
400                       456.48838101316824
400                       456.4861960829641
400                       456.4838368762569
400                       456.4813991809678
400                       456.47878714402253
400                       456.4760965550673
400                       456.473231566651
400                       456.4702910354931
400                       456.470289510541
400                       456.47028794484373
400                       456.46717687173464
400                       456.4640023505499
400                       456.463992033264
400                       456.46398146290727
400                       456.46064520152754
400                       456.45726163533783
400                       456.45723998027285
400                       456.4572179897525
400                       456.45369128586003
400                       456.45011520669397
400                       456.450096235083
400                       456.4500770372911
400                       456.4463521898385
400                       456.44254959208297
400                       456.4425331249727
400                       456.44254141152925
400                       456.4385729986625
400                       456.43452289485316
400                       456.43452221012336
400                       456.43452255666836
400                       456.43027197351137
400                       456.4259012958034
400                       456.4213175832999
400                       456.416634336879
400                       456.4117711545054
400                       456.40682853934595
400                       456.40171065797244
400                       456.3965132195271
400                       456.3911403948691
400                       456.3856878844299
400                       456.38005986385303
400                       456.37435202474245
400                       456.3684685480924
400                       456.3625051166765
400                       456.35636591757236
400                       456.3501466249845
400                       456.343751433209
400                       456.3372760087784
400                       456.33062455531353
400                       456.323892734046
400                       456.3169847622182
400                       456.309996301306
400                       456.3028315908701
400                       456.2955863038816
400                       456.28816471742834
400                       456.28066253257975
400                       456.2729840779963
400                       456.26522507905054
450                       474.16060748005276
450                       474.160495801928
450                       474.16030655383133
450                       474.15992497361395
450                       474.1594569515048
450                       474.1587951100935
450                       474.1580462759388
450                       474.1571033481062
450                       474.15607326259106
450                       474.15484897160775
450                       474.1535374368465
450                       474.1520316266553
450                       474.15043850921336
450                       474.1486510589333
450                       474.1467762440188
450                       474.14470704148624
450                       474.14255041677296
450                       474.14019934820254
450                       474.1377607969804
450                       474.13512774230105
450                       474.1324071402303
450                       474.1294919707848
450                       474.1264891924088
450                       474.1232917918501
450                       474.1200101508621
450                       474.120008448998
450                       474.1200067016983
450                       474.11653475399925
450                       474.11299207392307
450                       474.11298056002227
450                       474.1129687639553
450                       474.1092456104909
450                       474.1054697500731
450                       474.1054455841151
450                       474.10542104435893
450                       474.10148548012694
450                       474.09749490794593
450                       474.0974737372307
450                       474.09745231461665
450                       474.09329576519985
450                       474.08905255527986
450                       474.0890341801891
450                       474.0890434267657
450                       474.08461522929696
450                       474.0800959876221
450                       474.0800952235816
450                       474.0800956102613
450                       474.0753527160415
450                       474.07047594353645
450                       474.0653615287359
450                       474.06013619708045
450                       474.0547101728486
450                       474.0491956774502
450                       474.04348571710375
450                       474.0376871645932
450                       474.0316930313014
450                       474.0256101806515
450                       474.0193316297207
450                       474.0129642324084
450                       474.00640101207307
450                       473.99974881302444
450                       473.99290066562736
450                       473.9859634047561
450                       473.9788300688418
450                       473.9716074840044
450                       473.96418869860247
450                       473.9566805319021
450                       473.9489760458566
450                       473.94118205739
450                       473.9331916493285
450                       473.9251116454251
450                       473.9168351619194
450                       473.90846904274906
450                       473.89990644867396
450                       473.89125423938924
500                       491.4843018596296
500                       491.4841787749821