% Model:              TestCase5.mph
% Version:            COMSOL 5.5.0.359
% Date:               Jun 30 2020, 10:07
% Dimension:          2
% Nodes:              41
% Expressions:        3
% Description:        Magnitude value, Real value, Imaginary value
% Length unit:        m
% R                       Z                        abs(mf.Bz) (T) @ freq=100 real(mf.Bz) (T) @ freq=100 imag(mf.Bz) (T) @ freq=100
0                         0                        8.811619695935864E-4     6.638736218983248E-4     5.794119698501651E-4
0.002410950346966827      0                        8.827408885619841E-4     6.276830441455839E-4     6.206814581017659E-4
0.004819768193270842      0                        8.921502362050312E-4     5.462351127259173E-4     7.053787958154097E-4
0.0048211533902923496     0                        8.921600887592551E-4     5.461848913729164E-4     7.05430144245961E-4
0.004822539454378404      0                        8.933568729924412E-4     5.476778478604076E-4     7.057871332674073E-4
0.007230035031055175      0                        9.262172727592164E-4     4.022614323560954E-4     8.343046064815554E-4
0.009631188275431586      0                        0.0010020895989199224    1.7252668464359013E-4    9.871261861329494E-4
0.009637252556645257      0                        0.001002371219666234     1.7192567121027672E-4    9.87516898890378E-4
0.0096433193588753        0                        0.0010050440152630092    1.72611793147788E-4      9.901104188333224E-4
0.012042607291707863      0                        0.001147250119009124     -1.585897167412208E-4    0.001136235951424874
0.014439907947882042      0                        0.001379562565203564     -6.101976040741794E-4    0.001237275941450883
0.01444786072795788       0                        0.0013843088342371645    -6.118452231921956E-4    0.0012417553589189577
0.014455321520367907      0                        0.001385083677994248     -6.136123052033472E-4    0.001241747451758653
0.016825380106896718      0                        0.0017097410789416734    -0.0011885830971997556   0.0012290178103150798
0.018825589532800325      0                        0.0020768185981667104    -0.0017790280215964588   0.0010715571790929916
0.01916105301348546       0                        0.002154577241289077     -0.0018823028614480312   0.0010483983147951937
0.019604378137703028      0                        0.002246638139501545     -0.0020287227896247494   9.652288706416411E-4
0.021480980659369153      0                        0.0027258620920364864    -0.0026588074450302865   6.008886045292012E-4
0.022858269650040914      0                        0.003131891368441482     -0.003129456616896105    1.234699424291018E-4
0.02379699955734269       0                        0.003458747787294548     -0.0034522044464724844   -2.126516303030385E-4
0.02508077257826487       0                        0.003954246832230506     -0.0038497400209127172   -9.030890219618102E-4
0.026118633237962124      0                        0.00442968738254394      -0.004175867190404334    -0.0014779254092049396
0.026888423850967336      0                        0.004791005017885086     -0.004319840367063015    -0.0020718852006066726
0.028443832649448636      0                        0.005661057760194513     -0.004600311024326881    -0.00329919890938923
0.03049084728510942       0                        0.007066204134482144     -0.004530120340490563    -0.005423029648715393
0.030781285825565503      0                        0.007293622319225116     -0.0045134234078212645   -0.005729392260722759
0.03101376108962263       0                        0.007492006094020171     -0.00444495544313887     -0.006030963971152996
0.03313684326665          0                        0.009456865477448465     -0.0035707991545718843   -0.008756808668474223
0.03552082575205475       0                        0.012286090009041923     -0.001197620734094903    -0.012227579984917119
0.035542139995326565      0                        0.01231507215524758      -0.0011757471864300923   -0.012258818080979748
0.0355633085715199        0                        0.01238176013462095      -0.0011678941463593572   -0.012326556992696223
0.03794795040545876       0                        0.016133855705122532     0.0030511427716475876    -0.015842721600177717
0.0403522943833984        0                        0.021104008297170514     0.009769006641072782     -0.018706834992956927
0.04035646582344064       0                        0.02118348169173415      0.009771630577499002     -0.018795082666509408
0.04036062825567054       0                        0.021192714952490355     0.009787767274634774     -0.018797094957335746
0.042766505435431326      0                        0.02770001022690334      0.0192831158380909       -0.01988597521232785
0.04517705707178628       0                        0.03649072914484755      0.03180421623931456      -0.01789036452746412
0.04517740452280843       0                        0.036614233553280855     0.03187123506270965      -0.01802294299696098
0.04517775184120115       0                        0.03661558380701619      0.03187336448573771      -0.018021920371812217
0.047588681606794886      0                        0.04802208366034051      0.0468190572378432       -0.010681591568689823
0.05                      0                        0.0634273558648966       0.06329778542577648      0.004052139213377538
