% Model:              TestCase5.mph
% Version:            COMSOL 5.5.0.359
% Date:               Jun 30 2020, 10:07
% Dimension:          2
% Nodes:              41
% Expressions:        3
% Description:        Magnitude value, Real value, Imaginary value
% Length unit:        m
% R                       Z                        abs(mf.Aphi*r) (Wb) @ freq=100 real(mf.Aphi*r) (Wb) @ freq=100 imag(mf.Aphi*r) (Wb) @ freq=100
0                         0                        2.2392274114702458E-27   1.5311567961711528E-27   -1.6339211320680777E-27
0.002410950346966827      0                        2.5622390770456054E-9    1.8495169732941394E-9    1.7732332202607757E-9
0.004819768193270842      0                        1.027018222666183E-8     6.931758184727297E-9     7.578084945242213E-9
0.0048211533902923496     0                        1.0276119399600912E-8    6.935405386174839E-9     7.582795134003769E-9
0.004822539454378404      0                        1.0282070532802023E-8    6.939065992930714E-9     7.587511949728194E-9
0.007230035031055175      0                        2.330168584405222E-8     1.3767488786960135E-8    1.8799596157253768E-8
0.009631188275431586      0                        4.2088594204767115E-8    1.950715054616019E-8     3.72950511422494E-8
0.009637252556645257      0                        4.21443757760365E-8      1.951721279404652E-8     3.735273503110152E-8
0.0096433193588753        0                        4.220037953363708E-8     1.9527331682880423E-8    3.7410631512042E-8
0.012042607291707863      0                        6.802494957722913E-8     1.9604155537951155E-8    6.513885822324785E-8
0.014439907947882042      0                        1.0317809870717841E-7    7.281326684609893E-9     1.029208547114735E-7
0.01444786072795788       0                        1.033149650942725E-7     7.211145541834434E-9     1.0306299720270718E-7
0.014455321520367907      0                        1.0344394081769692E-7    7.1450809246689575E-9    1.0319688324012074E-7
0.016825380106896718      0                        1.5136861680743338E-7    -2.64328028150364E-8     1.4904282971527685E-7
0.018825589532800325      0                        2.0609823868259544E-7    -7.948368745419222E-8    1.9015474597483063E-7
0.01916105301348546       0                        2.1696341628063979E-7    -9.11419100026631E-8     1.9689153421422833E-7
0.019604378137703028      0                        2.3216251682939164E-7    -1.0794464159662686E-7   2.055416954565018E-7
0.021480980659369153      0                        3.079441394339413E-7     -1.9831991302661753E-7   2.3558184375886342E-7
0.022858269650040914      0                        3.782138113039178E-7     -2.867457195635984E-7    2.466223415933555E-7
0.02379699955734269       0                        4.348598635777589E-7     -3.5883792900469935E-7   2.456388439528354E-7
0.02508077257826487       0                        5.256755832416309E-7     -4.7355460092756753E-7   2.2821231070378545E-7
0.026118633237962124      0                        6.123890642989418E-7     -5.800025671205102E-7    1.9651307388199792E-7
0.026888423850967336      0                        6.856775649075729E-7     -6.666786431139417E-7    1.602913280041448E-7
0.028443832649448636      0                        8.598691081167805E-7     -8.587103411892896E-7    4.462547510247408E-8
0.03049084728510942       0                        1.155672289337876E-6     -1.134795472458065E-6    -2.186725314988695E-7
0.030781285825565503      0                        1.2052698374228857E-6    -1.1750301333954476E-6   -2.6829007923154037E-7
0.03101376108962263       0                        1.2465998527424944E-6    -1.207295970595301E-6    -3.1056019101288364E-7
0.03313684326665          0                        1.688381105529572E-6     -1.4791848162264527E-6   -8.140288919653743E-7
0.03552082575205475       0                        2.367120590862863E-6     -1.6741697745645992E-6   -1.673444190172253E-6
0.035542139995326565      0                        2.3743185418680183E-6    -1.6750684818764114E-6   -1.6827162919763176E-6
0.0355633085715199        0                        2.3815222885827836E-6    -1.6759612582694359E-6   -1.691981758706786E-6
0.03794795040545876       0                        3.3302373170451876E-6    -1.5917951702202995E-6   -2.9251784089015247E-6
0.0403522943833984        0                        4.658007834778909E-6     -9.876360990369828E-7    -4.552099727020566E-6
0.04035646582344064       0                        4.660737338030672E-6     -9.859906264770765E-7    -4.555249171956741E-6
0.04036062825567054       0                        4.663476418735127E-6     -9.843477376177273E-7    -4.55840672160191E-6
0.042766505435431326      0                        6.51088012783224E-6      4.703422176834273E-7     -6.493869280888351E-6
0.04517705707178628       0                        9.077417362202995E-6     3.1797541590442976E-6    -8.502274369582815E-6
0.04517740452280843       0                        9.077855277852135E-6     3.180253400157269E-6     -8.502555189848284E-6
0.04517775184120115       0                        9.07829535729989E-6      3.1807535085354587E-6    -8.502837979893073E-6
0.047588681606794886      0                        1.2637072085700664E-5    7.583529184652569E-6     -1.0108693090836108E-5
0.05                      0                        1.7563082798930348E-5    1.4071558350552694E-5    -1.0509668072259647E-5
